[ O5'-C5'.Res1.NHP ]
2 3

[ O5'-C5'.Res2.NHP ]
35 36

[ O5'-C5'.Res3.NHP ]
67 68

[ O5'-C5'.Res4.NHP ]
99 100

[ O5'-C5'.Res5.NHP ]
131 132

[ O5'-C5'.Res6.NHP ]
164 165

[ O5'-C5'.Res7.NHP ]
196 197

[ O5'-C5'.Res8.NHP ]
226 227

[ O5'-C5'.Res9.NHP ]
256 257

[ O5'-C5'.Res10.NHP ]
289 290

[ O5'-C5'.Res11.NHP ]
321 322

[ O5'-C5'.Res12.NHP ]
353 354

[ O5'-C5'.Res13.NHP ]
385 386

[ O5'-C5'.Res14.NHP ]
418 419

[ O5'-C5'.Res15.NHP ]
451 452

[ O5'-C5'.Res16.NHP ]
483 484

[ O5'-C5'.Res17.NHP ]
513 514

[ O5'-C5'.Res18.NHP ]
545 546

[ O5'-C5'.Res19.NHP ]
575 576

[ O5'-C5'.Res20.NHP ]
608 609

[ O5'-C5'.Res21.NHP ]
641 642

[ O5'-C5'.Res22.NHP ]
671 672

[ O5'-C5'.Res23.NHP ]
704 705

[ O5'-C5'.Res24.NHP ]
736 737

[ O5'-C5'.Res25.NHP ]
768 769

[ O5'-C5'.Res26.NHP ]
798 799

[ O5'-C5'.Res27.NHP ]
831 832

[ O5'-C5'.Res28.NHP ]
864 865

[ O5'-C5'.Res29.NHP ]
894 895

[ O5'-C5'.Res30.NHP ]
927 928

[ O5'-C5'.Res31.NHP ]
960 961

[ O5'-C5'.Res32.NHP ]
992 993

[ O5'-C5'.Res33.NHP ]
1024 1025

[ O5'-C5'.Res34.NHP ]
1056 1057

[ O5'-C5'.Res35.NHP ]
1089 1090

[ O5'-C5'.Res36.NHP ]
1121 1122

[ O5'-C5'.Res37.NHP ]
1151 1152

[ O5'-C5'.Res38.NHP ]
1181 1182

[ O5'-C5'.Res39.NHP ]
1214 1215

[ O5'-C5'.Res40.NHP ]
1246 1247

[ O5'-C5'.Res41.NHP ]
1278 1279

[ O5'-C5'.Res42.NHP ]
1310 1311

[ O5'-C5'.Res43.NHP ]
1342 1343

[ O5'-C5'.Res44.NHP ]
1375 1376

[ O5'-C5'.Res45.NHP ]
1405 1406

[ O5'-C5'.Res46.NHP ]
1437 1438

[ O5'-C5'.Res47.NHP ]
1467 1468

[ O5'-C5'.Res48.NHP ]
1499 1500

[ O5'-C5'.Res49.NHP ]
1531 1532

[ O5'-C5'.Res50.NHP ]
1561 1562

[ O5'-C5'.Res51.NHP ]
1593 1594

[ O5'-C5'.Res52.NHP ]
1625 1626

[ O5'-C5'.Res53.NHP ]
1655 1656

[ O5'-C5'.Res54.NHP ]
1687 1688

[ O5'-C5'.Res55.NHP ]
1717 1718

[ O5'-C5'.Res56.NHP ]
1750 1751

[ O5'-C5'.Res57.NHP ]
1782 1783

[ O5'-C5'.Res58.NHP ]
1814 1815

[ O5'-C5'.Res59.NHP ]
1847 1848

[ O5'-C5'.Res60.NHP ]
1880 1881

[ O5'-C5'.Res61.NHP ]
1912 1913

[ O5'-C5'.Res62.NHP ]
1945 1946

[ O5'-C5'.Res63.NHP ]
1977 1978

[ O5'-C5'.Res64.NHP ]
2009 2010

[ O5'-C5'.Res65.NHP ]
2042 2043

[ O5'-C5'.Res66.NHP ]
2074 2075

[ O5'-C5'.Res67.NHP ]
2106 2107

[ O5'-C5'.Res68.NHP ]
2139 2140

[ O5'-C5'.Res69.NHP ]
2172 2173

[ O5'-C5'.Res70.NHP ]
2205 2206

[ O5'-C5'.Res71.NHP ]
2235 2236

[ O5'-C5'.Res72.NHP ]
2268 2269

[ O5'-C5'.Res73.NHP ]
2298 2299

[ O5'-C5'.Res74.NHP ]
2330 2331

[ O5'-C5'.Res75.NHP ]
2362 2363

[ O5'-C5'.Res76.NHP ]
2392 2393

[ O5'-C5'.Res77.NHP ]
2425 2426

[ O5'-C5'.Res78.NHP ]
2457 2458

[ O5'-C5'.Res79.NHP ]
2489 2490

[ O5'-C5'.Res80.NHP ]
2521 2522

[ O5'-C5'.Res81.NHP ]
2554 2555

[ O5'-C5'.Res82.NHP ]
2587 2588

[ O5'-C5'.Res83.NHP ]
2619 2620

[ O5'-C5'.Res84.NHP ]
2651 2652

[ O5'-C5'.Res85.NHP ]
2684 2685

[ O5'-C5'.Res86.NHP ]
2717 2718

[ O5'-C5'.Res87.NHP ]
2749 2750

[ O5'-C5'.Res88.NHP ]
2782 2783

[ O5'-C5'.Res89.NHP ]
2815 2816

[ O5'-C5'.Res90.NHP ]
2845 2846

[ O5'-C5'.Res91.NHP ]
2878 2879

[ O5'-C5'.Res92.NHP ]
2910 2911

[ O5'-C5'.Res93.NHP ]
2942 2943

[ O5'-C5'.Res94.NHP ]
2975 2976

[ O5'-C5'.Res95.NHP ]
3007 3008

[ O5'-C5'.Res96.NHP ]
3039 3040

[ O5'-C5'.Res97.NHP ]
3069 3070

[ O5'-C5'.Res98.NHP ]
3101 3102

[ O5'-C5'.Res99.NHP ]
3133 3134

[ O5'-C5'.Res100.NHP ]
3163 3164

[ C5'-C4'.Res1.NHP ]
3 6

[ C5'-C4'.Res2.NHP ]
36 39

[ C5'-C4'.Res3.NHP ]
68 71

[ C5'-C4'.Res4.NHP ]
100 103

[ C5'-C4'.Res5.NHP ]
132 135

[ C5'-C4'.Res6.NHP ]
165 168

[ C5'-C4'.Res7.NHP ]
197 200

[ C5'-C4'.Res8.NHP ]
227 230

[ C5'-C4'.Res9.NHP ]
257 260

[ C5'-C4'.Res10.NHP ]
290 293

[ C5'-C4'.Res11.NHP ]
322 325

[ C5'-C4'.Res12.NHP ]
354 357

[ C5'-C4'.Res13.NHP ]
386 389

[ C5'-C4'.Res14.NHP ]
419 422

[ C5'-C4'.Res15.NHP ]
452 455

[ C5'-C4'.Res16.NHP ]
484 487

[ C5'-C4'.Res17.NHP ]
514 517

[ C5'-C4'.Res18.NHP ]
546 549

[ C5'-C4'.Res19.NHP ]
576 579

[ C5'-C4'.Res20.NHP ]
609 612

[ C5'-C4'.Res21.NHP ]
642 645

[ C5'-C4'.Res22.NHP ]
672 675

[ C5'-C4'.Res23.NHP ]
705 708

[ C5'-C4'.Res24.NHP ]
737 740

[ C5'-C4'.Res25.NHP ]
769 772

[ C5'-C4'.Res26.NHP ]
799 802

[ C5'-C4'.Res27.NHP ]
832 835

[ C5'-C4'.Res28.NHP ]
865 868

[ C5'-C4'.Res29.NHP ]
895 898

[ C5'-C4'.Res30.NHP ]
928 931

[ C5'-C4'.Res31.NHP ]
961 964

[ C5'-C4'.Res32.NHP ]
993 996

[ C5'-C4'.Res33.NHP ]
1025 1028

[ C5'-C4'.Res34.NHP ]
1057 1060

[ C5'-C4'.Res35.NHP ]
1090 1093

[ C5'-C4'.Res36.NHP ]
1122 1125

[ C5'-C4'.Res37.NHP ]
1152 1155

[ C5'-C4'.Res38.NHP ]
1182 1185

[ C5'-C4'.Res39.NHP ]
1215 1218

[ C5'-C4'.Res40.NHP ]
1247 1250

[ C5'-C4'.Res41.NHP ]
1279 1282

[ C5'-C4'.Res42.NHP ]
1311 1314

[ C5'-C4'.Res43.NHP ]
1343 1346

[ C5'-C4'.Res44.NHP ]
1376 1379

[ C5'-C4'.Res45.NHP ]
1406 1409

[ C5'-C4'.Res46.NHP ]
1438 1441

[ C5'-C4'.Res47.NHP ]
1468 1471

[ C5'-C4'.Res48.NHP ]
1500 1503

[ C5'-C4'.Res49.NHP ]
1532 1535

[ C5'-C4'.Res50.NHP ]
1562 1565

[ C5'-C4'.Res51.NHP ]
1594 1597

[ C5'-C4'.Res52.NHP ]
1626 1629

[ C5'-C4'.Res53.NHP ]
1656 1659

[ C5'-C4'.Res54.NHP ]
1688 1691

[ C5'-C4'.Res55.NHP ]
1718 1721

[ C5'-C4'.Res56.NHP ]
1751 1754

[ C5'-C4'.Res57.NHP ]
1783 1786

[ C5'-C4'.Res58.NHP ]
1815 1818

[ C5'-C4'.Res59.NHP ]
1848 1851

[ C5'-C4'.Res60.NHP ]
1881 1884

[ C5'-C4'.Res61.NHP ]
1913 1916

[ C5'-C4'.Res62.NHP ]
1946 1949

[ C5'-C4'.Res63.NHP ]
1978 1981

[ C5'-C4'.Res64.NHP ]
2010 2013

[ C5'-C4'.Res65.NHP ]
2043 2046

[ C5'-C4'.Res66.NHP ]
2075 2078

[ C5'-C4'.Res67.NHP ]
2107 2110

[ C5'-C4'.Res68.NHP ]
2140 2143

[ C5'-C4'.Res69.NHP ]
2173 2176

[ C5'-C4'.Res70.NHP ]
2206 2209

[ C5'-C4'.Res71.NHP ]
2236 2239

[ C5'-C4'.Res72.NHP ]
2269 2272

[ C5'-C4'.Res73.NHP ]
2299 2302

[ C5'-C4'.Res74.NHP ]
2331 2334

[ C5'-C4'.Res75.NHP ]
2363 2366

[ C5'-C4'.Res76.NHP ]
2393 2396

[ C5'-C4'.Res77.NHP ]
2426 2429

[ C5'-C4'.Res78.NHP ]
2458 2461

[ C5'-C4'.Res79.NHP ]
2490 2493

[ C5'-C4'.Res80.NHP ]
2522 2525

[ C5'-C4'.Res81.NHP ]
2555 2558

[ C5'-C4'.Res82.NHP ]
2588 2591

[ C5'-C4'.Res83.NHP ]
2620 2623

[ C5'-C4'.Res84.NHP ]
2652 2655

[ C5'-C4'.Res85.NHP ]
2685 2688

[ C5'-C4'.Res86.NHP ]
2718 2721

[ C5'-C4'.Res87.NHP ]
2750 2753

[ C5'-C4'.Res88.NHP ]
2783 2786

[ C5'-C4'.Res89.NHP ]
2816 2819

[ C5'-C4'.Res90.NHP ]
2846 2849

[ C5'-C4'.Res91.NHP ]
2879 2882

[ C5'-C4'.Res92.NHP ]
2911 2914

[ C5'-C4'.Res93.NHP ]
2943 2946

[ C5'-C4'.Res94.NHP ]
2976 2979

[ C5'-C4'.Res95.NHP ]
3008 3011

[ C5'-C4'.Res96.NHP ]
3040 3043

[ C5'-C4'.Res97.NHP ]
3070 3073

[ C5'-C4'.Res98.NHP ]
3102 3105

[ C5'-C4'.Res99.NHP ]
3134 3137

[ C5'-C4'.Res100.NHP ]
3164 3167

[ C4'-C3'.Res1.NHP ]
6 26

[ C4'-C3'.Res2.NHP ]
39 58

[ C4'-C3'.Res3.NHP ]
71 90

[ C4'-C3'.Res4.NHP ]
103 122

[ C4'-C3'.Res5.NHP ]
135 155

[ C4'-C3'.Res6.NHP ]
168 187

[ C4'-C3'.Res7.NHP ]
200 217

[ C4'-C3'.Res8.NHP ]
230 247

[ C4'-C3'.Res9.NHP ]
260 280

[ C4'-C3'.Res10.NHP ]
293 312

[ C4'-C3'.Res11.NHP ]
325 344

[ C4'-C3'.Res12.NHP ]
357 376

[ C4'-C3'.Res13.NHP ]
389 409

[ C4'-C3'.Res14.NHP ]
422 442

[ C4'-C3'.Res15.NHP ]
455 474

[ C4'-C3'.Res16.NHP ]
487 504

[ C4'-C3'.Res17.NHP ]
517 536

[ C4'-C3'.Res18.NHP ]
549 566

[ C4'-C3'.Res19.NHP ]
579 599

[ C4'-C3'.Res20.NHP ]
612 632

[ C4'-C3'.Res21.NHP ]
645 662

[ C4'-C3'.Res22.NHP ]
675 695

[ C4'-C3'.Res23.NHP ]
708 727

[ C4'-C3'.Res24.NHP ]
740 759

[ C4'-C3'.Res25.NHP ]
772 789

[ C4'-C3'.Res26.NHP ]
802 822

[ C4'-C3'.Res27.NHP ]
835 855

[ C4'-C3'.Res28.NHP ]
868 885

[ C4'-C3'.Res29.NHP ]
898 918

[ C4'-C3'.Res30.NHP ]
931 951

[ C4'-C3'.Res31.NHP ]
964 983

[ C4'-C3'.Res32.NHP ]
996 1015

[ C4'-C3'.Res33.NHP ]
1028 1047

[ C4'-C3'.Res34.NHP ]
1060 1080

[ C4'-C3'.Res35.NHP ]
1093 1112

[ C4'-C3'.Res36.NHP ]
1125 1142

[ C4'-C3'.Res37.NHP ]
1155 1172

[ C4'-C3'.Res38.NHP ]
1185 1205

[ C4'-C3'.Res39.NHP ]
1218 1237

[ C4'-C3'.Res40.NHP ]
1250 1269

[ C4'-C3'.Res41.NHP ]
1282 1301

[ C4'-C3'.Res42.NHP ]
1314 1333

[ C4'-C3'.Res43.NHP ]
1346 1366

[ C4'-C3'.Res44.NHP ]
1379 1396

[ C4'-C3'.Res45.NHP ]
1409 1428

[ C4'-C3'.Res46.NHP ]
1441 1458

[ C4'-C3'.Res47.NHP ]
1471 1490

[ C4'-C3'.Res48.NHP ]
1503 1522

[ C4'-C3'.Res49.NHP ]
1535 1552

[ C4'-C3'.Res50.NHP ]
1565 1584

[ C4'-C3'.Res51.NHP ]
1597 1616

[ C4'-C3'.Res52.NHP ]
1629 1646

[ C4'-C3'.Res53.NHP ]
1659 1678

[ C4'-C3'.Res54.NHP ]
1691 1708

[ C4'-C3'.Res55.NHP ]
1721 1741

[ C4'-C3'.Res56.NHP ]
1754 1773

[ C4'-C3'.Res57.NHP ]
1786 1805

[ C4'-C3'.Res58.NHP ]
1818 1838

[ C4'-C3'.Res59.NHP ]
1851 1871

[ C4'-C3'.Res60.NHP ]
1884 1903

[ C4'-C3'.Res61.NHP ]
1916 1936

[ C4'-C3'.Res62.NHP ]
1949 1968

[ C4'-C3'.Res63.NHP ]
1981 2000

[ C4'-C3'.Res64.NHP ]
2013 2033

[ C4'-C3'.Res65.NHP ]
2046 2065

[ C4'-C3'.Res66.NHP ]
2078 2097

[ C4'-C3'.Res67.NHP ]
2110 2130

[ C4'-C3'.Res68.NHP ]
2143 2163

[ C4'-C3'.Res69.NHP ]
2176 2196

[ C4'-C3'.Res70.NHP ]
2209 2226

[ C4'-C3'.Res71.NHP ]
2239 2259

[ C4'-C3'.Res72.NHP ]
2272 2289

[ C4'-C3'.Res73.NHP ]
2302 2321

[ C4'-C3'.Res74.NHP ]
2334 2353

[ C4'-C3'.Res75.NHP ]
2366 2383

[ C4'-C3'.Res76.NHP ]
2396 2416

[ C4'-C3'.Res77.NHP ]
2429 2448

[ C4'-C3'.Res78.NHP ]
2461 2480

[ C4'-C3'.Res79.NHP ]
2493 2512

[ C4'-C3'.Res80.NHP ]
2525 2545

[ C4'-C3'.Res81.NHP ]
2558 2578

[ C4'-C3'.Res82.NHP ]
2591 2610

[ C4'-C3'.Res83.NHP ]
2623 2642

[ C4'-C3'.Res84.NHP ]
2655 2675

[ C4'-C3'.Res85.NHP ]
2688 2708

[ C4'-C3'.Res86.NHP ]
2721 2740

[ C4'-C3'.Res87.NHP ]
2753 2773

[ C4'-C3'.Res88.NHP ]
2786 2806

[ C4'-C3'.Res89.NHP ]
2819 2836

[ C4'-C3'.Res90.NHP ]
2849 2869

[ C4'-C3'.Res91.NHP ]
2882 2901

[ C4'-C3'.Res92.NHP ]
2914 2933

[ C4'-C3'.Res93.NHP ]
2946 2966

[ C4'-C3'.Res94.NHP ]
2979 2998

[ C4'-C3'.Res95.NHP ]
3011 3030

[ C4'-C3'.Res96.NHP ]
3043 3060

[ C4'-C3'.Res97.NHP ]
3073 3092

[ C4'-C3'.Res98.NHP ]
3105 3124

[ C4'-C3'.Res99.NHP ]
3137 3154

[ C4'-C3'.Res100.NHP ]
3167 3184

[ C3'-O3'.Res1.NHP ]
26 31

[ C3'-O3'.Res2.NHP ]
58 63

[ C3'-O3'.Res3.NHP ]
90 95

[ C3'-O3'.Res4.NHP ]
122 127

[ C3'-O3'.Res5.NHP ]
155 160

[ C3'-O3'.Res6.NHP ]
187 192

[ C3'-O3'.Res7.NHP ]
217 222

[ C3'-O3'.Res8.NHP ]
247 252

[ C3'-O3'.Res9.NHP ]
280 285

[ C3'-O3'.Res10.NHP ]
312 317

[ C3'-O3'.Res11.NHP ]
344 349

[ C3'-O3'.Res12.NHP ]
376 381

[ C3'-O3'.Res13.NHP ]
409 414

[ C3'-O3'.Res14.NHP ]
442 447

[ C3'-O3'.Res15.NHP ]
474 479

[ C3'-O3'.Res16.NHP ]
504 509

[ C3'-O3'.Res17.NHP ]
536 541

[ C3'-O3'.Res18.NHP ]
566 571

[ C3'-O3'.Res19.NHP ]
599 604

[ C3'-O3'.Res20.NHP ]
632 637

[ C3'-O3'.Res21.NHP ]
662 667

[ C3'-O3'.Res22.NHP ]
695 700

[ C3'-O3'.Res23.NHP ]
727 732

[ C3'-O3'.Res24.NHP ]
759 764

[ C3'-O3'.Res25.NHP ]
789 794

[ C3'-O3'.Res26.NHP ]
822 827

[ C3'-O3'.Res27.NHP ]
855 860

[ C3'-O3'.Res28.NHP ]
885 890

[ C3'-O3'.Res29.NHP ]
918 923

[ C3'-O3'.Res30.NHP ]
951 956

[ C3'-O3'.Res31.NHP ]
983 988

[ C3'-O3'.Res32.NHP ]
1015 1020

[ C3'-O3'.Res33.NHP ]
1047 1052

[ C3'-O3'.Res34.NHP ]
1080 1085

[ C3'-O3'.Res35.NHP ]
1112 1117

[ C3'-O3'.Res36.NHP ]
1142 1147

[ C3'-O3'.Res37.NHP ]
1172 1177

[ C3'-O3'.Res38.NHP ]
1205 1210

[ C3'-O3'.Res39.NHP ]
1237 1242

[ C3'-O3'.Res40.NHP ]
1269 1274

[ C3'-O3'.Res41.NHP ]
1301 1306

[ C3'-O3'.Res42.NHP ]
1333 1338

[ C3'-O3'.Res43.NHP ]
1366 1371

[ C3'-O3'.Res44.NHP ]
1396 1401

[ C3'-O3'.Res45.NHP ]
1428 1433

[ C3'-O3'.Res46.NHP ]
1458 1463

[ C3'-O3'.Res47.NHP ]
1490 1495

[ C3'-O3'.Res48.NHP ]
1522 1527

[ C3'-O3'.Res49.NHP ]
1552 1557

[ C3'-O3'.Res50.NHP ]
1584 1589

[ C3'-O3'.Res51.NHP ]
1616 1621

[ C3'-O3'.Res52.NHP ]
1646 1651

[ C3'-O3'.Res53.NHP ]
1678 1683

[ C3'-O3'.Res54.NHP ]
1708 1713

[ C3'-O3'.Res55.NHP ]
1741 1746

[ C3'-O3'.Res56.NHP ]
1773 1778

[ C3'-O3'.Res57.NHP ]
1805 1810

[ C3'-O3'.Res58.NHP ]
1838 1843

[ C3'-O3'.Res59.NHP ]
1871 1876

[ C3'-O3'.Res60.NHP ]
1903 1908

[ C3'-O3'.Res61.NHP ]
1936 1941

[ C3'-O3'.Res62.NHP ]
1968 1973

[ C3'-O3'.Res63.NHP ]
2000 2005

[ C3'-O3'.Res64.NHP ]
2033 2038

[ C3'-O3'.Res65.NHP ]
2065 2070

[ C3'-O3'.Res66.NHP ]
2097 2102

[ C3'-O3'.Res67.NHP ]
2130 2135

[ C3'-O3'.Res68.NHP ]
2163 2168

[ C3'-O3'.Res69.NHP ]
2196 2201

[ C3'-O3'.Res70.NHP ]
2226 2231

[ C3'-O3'.Res71.NHP ]
2259 2264

[ C3'-O3'.Res72.NHP ]
2289 2294

[ C3'-O3'.Res73.NHP ]
2321 2326

[ C3'-O3'.Res74.NHP ]
2353 2358

[ C3'-O3'.Res75.NHP ]
2383 2388

[ C3'-O3'.Res76.NHP ]
2416 2421

[ C3'-O3'.Res77.NHP ]
2448 2453

[ C3'-O3'.Res78.NHP ]
2480 2485

[ C3'-O3'.Res79.NHP ]
2512 2517

[ C3'-O3'.Res80.NHP ]
2545 2550

[ C3'-O3'.Res81.NHP ]
2578 2583

[ C3'-O3'.Res82.NHP ]
2610 2615

[ C3'-O3'.Res83.NHP ]
2642 2647

[ C3'-O3'.Res84.NHP ]
2675 2680

[ C3'-O3'.Res85.NHP ]
2708 2713

[ C3'-O3'.Res86.NHP ]
2740 2745

[ C3'-O3'.Res87.NHP ]
2773 2778

[ C3'-O3'.Res88.NHP ]
2806 2811

[ C3'-O3'.Res89.NHP ]
2836 2841

[ C3'-O3'.Res90.NHP ]
2869 2874

[ C3'-O3'.Res91.NHP ]
2901 2906

[ C3'-O3'.Res92.NHP ]
2933 2938

[ C3'-O3'.Res93.NHP ]
2966 2971

[ C3'-O3'.Res94.NHP ]
2998 3003

[ C3'-O3'.Res95.NHP ]
3030 3035

[ C3'-O3'.Res96.NHP ]
3060 3065

[ C3'-O3'.Res97.NHP ]
3092 3097

[ C3'-O3'.Res98.NHP ]
3124 3129

[ C3'-O3'.Res99.NHP ]
3154 3159

[ C3'-O3'.Res100.NHP ]
3184 3189

[ O3'-P.Res1.5.NHP ]
31 32

[ O3'-P.Res2.5.NHP ]
63 64

[ O3'-P.Res3.5.NHP ]
95 96

[ O3'-P.Res4.5.NHP ]
127 128

[ O3'-P.Res5.5.NHP ]
160 161

[ O3'-P.Res6.5.NHP ]
192 193

[ O3'-P.Res7.5.NHP ]
222 223

[ O3'-P.Res8.5.NHP ]
252 253

[ O3'-P.Res9.5.NHP ]
285 286

[ O3'-P.Res10.5.NHP ]
317 318

[ O3'-P.Res11.5.NHP ]
349 350

[ O3'-P.Res12.5.NHP ]
381 382

[ O3'-P.Res13.5.NHP ]
414 415

[ O3'-P.Res14.5.NHP ]
447 448

[ O3'-P.Res15.5.NHP ]
479 480

[ O3'-P.Res16.5.NHP ]
509 510

[ O3'-P.Res17.5.NHP ]
541 542

[ O3'-P.Res18.5.NHP ]
571 572

[ O3'-P.Res19.5.NHP ]
604 605

[ O3'-P.Res20.5.NHP ]
637 638

[ O3'-P.Res21.5.NHP ]
667 668

[ O3'-P.Res22.5.NHP ]
700 701

[ O3'-P.Res23.5.NHP ]
732 733

[ O3'-P.Res24.5.NHP ]
764 765

[ O3'-P.Res25.5.NHP ]
794 795

[ O3'-P.Res26.5.NHP ]
827 828

[ O3'-P.Res27.5.NHP ]
860 861

[ O3'-P.Res28.5.NHP ]
890 891

[ O3'-P.Res29.5.NHP ]
923 924

[ O3'-P.Res30.5.NHP ]
956 957

[ O3'-P.Res31.5.NHP ]
988 989

[ O3'-P.Res32.5.NHP ]
1020 1021

[ O3'-P.Res33.5.NHP ]
1052 1053

[ O3'-P.Res34.5.NHP ]
1085 1086

[ O3'-P.Res35.5.NHP ]
1117 1118

[ O3'-P.Res36.5.NHP ]
1147 1148

[ O3'-P.Res37.5.NHP ]
1177 1178

[ O3'-P.Res38.5.NHP ]
1210 1211

[ O3'-P.Res39.5.NHP ]
1242 1243

[ O3'-P.Res40.5.NHP ]
1274 1275

[ O3'-P.Res41.5.NHP ]
1306 1307

[ O3'-P.Res42.5.NHP ]
1338 1339

[ O3'-P.Res43.5.NHP ]
1371 1372

[ O3'-P.Res44.5.NHP ]
1401 1402

[ O3'-P.Res45.5.NHP ]
1433 1434

[ O3'-P.Res46.5.NHP ]
1463 1464

[ O3'-P.Res47.5.NHP ]
1495 1496

[ O3'-P.Res48.5.NHP ]
1527 1528

[ O3'-P.Res49.5.NHP ]
1557 1558

[ O3'-P.Res50.5.NHP ]
1589 1590

[ O3'-P.Res51.5.NHP ]
1621 1622

[ O3'-P.Res52.5.NHP ]
1651 1652

[ O3'-P.Res53.5.NHP ]
1683 1684

[ O3'-P.Res54.5.NHP ]
1713 1714

[ O3'-P.Res55.5.NHP ]
1746 1747

[ O3'-P.Res56.5.NHP ]
1778 1779

[ O3'-P.Res57.5.NHP ]
1810 1811

[ O3'-P.Res58.5.NHP ]
1843 1844

[ O3'-P.Res59.5.NHP ]
1876 1877

[ O3'-P.Res60.5.NHP ]
1908 1909

[ O3'-P.Res61.5.NHP ]
1941 1942

[ O3'-P.Res62.5.NHP ]
1973 1974

[ O3'-P.Res63.5.NHP ]
2005 2006

[ O3'-P.Res64.5.NHP ]
2038 2039

[ O3'-P.Res65.5.NHP ]
2070 2071

[ O3'-P.Res66.5.NHP ]
2102 2103

[ O3'-P.Res67.5.NHP ]
2135 2136

[ O3'-P.Res68.5.NHP ]
2168 2169

[ O3'-P.Res69.5.NHP ]
2201 2202

[ O3'-P.Res70.5.NHP ]
2231 2232

[ O3'-P.Res71.5.NHP ]
2264 2265

[ O3'-P.Res72.5.NHP ]
2294 2295

[ O3'-P.Res73.5.NHP ]
2326 2327

[ O3'-P.Res74.5.NHP ]
2358 2359

[ O3'-P.Res75.5.NHP ]
2388 2389

[ O3'-P.Res76.5.NHP ]
2421 2422

[ O3'-P.Res77.5.NHP ]
2453 2454

[ O3'-P.Res78.5.NHP ]
2485 2486

[ O3'-P.Res79.5.NHP ]
2517 2518

[ O3'-P.Res80.5.NHP ]
2550 2551

[ O3'-P.Res81.5.NHP ]
2583 2584

[ O3'-P.Res82.5.NHP ]
2615 2616

[ O3'-P.Res83.5.NHP ]
2647 2648

[ O3'-P.Res84.5.NHP ]
2680 2681

[ O3'-P.Res85.5.NHP ]
2713 2714

[ O3'-P.Res86.5.NHP ]
2745 2746

[ O3'-P.Res87.5.NHP ]
2778 2779

[ O3'-P.Res88.5.NHP ]
2811 2812

[ O3'-P.Res89.5.NHP ]
2841 2842

[ O3'-P.Res90.5.NHP ]
2874 2875

[ O3'-P.Res91.5.NHP ]
2906 2907

[ O3'-P.Res92.5.NHP ]
2938 2939

[ O3'-P.Res93.5.NHP ]
2971 2972

[ O3'-P.Res94.5.NHP ]
3003 3004

[ O3'-P.Res95.5.NHP ]
3035 3036

[ O3'-P.Res96.5.NHP ]
3065 3066

[ O3'-P.Res97.5.NHP ]
3097 3098

[ O3'-P.Res98.5.NHP ]
3129 3130

[ O3'-P.Res99.5.NHP ]
3159 3160

[ P-O5'.Res2.NHP ]
32 35

[ P-O5'.Res3.NHP ]
64 67

[ P-O5'.Res4.NHP ]
96 99

[ P-O5'.Res5.NHP ]
128 131

[ P-O5'.Res6.NHP ]
161 164

[ P-O5'.Res7.NHP ]
193 196

[ P-O5'.Res8.NHP ]
223 226

[ P-O5'.Res9.NHP ]
253 256

[ P-O5'.Res10.NHP ]
286 289

[ P-O5'.Res11.NHP ]
318 321

[ P-O5'.Res12.NHP ]
350 353

[ P-O5'.Res13.NHP ]
382 385

[ P-O5'.Res14.NHP ]
415 418

[ P-O5'.Res15.NHP ]
448 451

[ P-O5'.Res16.NHP ]
480 483

[ P-O5'.Res17.NHP ]
510 513

[ P-O5'.Res18.NHP ]
542 545

[ P-O5'.Res19.NHP ]
572 575

[ P-O5'.Res20.NHP ]
605 608

[ P-O5'.Res21.NHP ]
638 641

[ P-O5'.Res22.NHP ]
668 671

[ P-O5'.Res23.NHP ]
701 704

[ P-O5'.Res24.NHP ]
733 736

[ P-O5'.Res25.NHP ]
765 768

[ P-O5'.Res26.NHP ]
795 798

[ P-O5'.Res27.NHP ]
828 831

[ P-O5'.Res28.NHP ]
861 864

[ P-O5'.Res29.NHP ]
891 894

[ P-O5'.Res30.NHP ]
924 927

[ P-O5'.Res31.NHP ]
957 960

[ P-O5'.Res32.NHP ]
989 992

[ P-O5'.Res33.NHP ]
1021 1024

[ P-O5'.Res34.NHP ]
1053 1056

[ P-O5'.Res35.NHP ]
1086 1089

[ P-O5'.Res36.NHP ]
1118 1121

[ P-O5'.Res37.NHP ]
1148 1151

[ P-O5'.Res38.NHP ]
1178 1181

[ P-O5'.Res39.NHP ]
1211 1214

[ P-O5'.Res40.NHP ]
1243 1246

[ P-O5'.Res41.NHP ]
1275 1278

[ P-O5'.Res42.NHP ]
1307 1310

[ P-O5'.Res43.NHP ]
1339 1342

[ P-O5'.Res44.NHP ]
1372 1375

[ P-O5'.Res45.NHP ]
1402 1405

[ P-O5'.Res46.NHP ]
1434 1437

[ P-O5'.Res47.NHP ]
1464 1467

[ P-O5'.Res48.NHP ]
1496 1499

[ P-O5'.Res49.NHP ]
1528 1531

[ P-O5'.Res50.NHP ]
1558 1561

[ P-O5'.Res51.NHP ]
1590 1593

[ P-O5'.Res52.NHP ]
1622 1625

[ P-O5'.Res53.NHP ]
1652 1655

[ P-O5'.Res54.NHP ]
1684 1687

[ P-O5'.Res55.NHP ]
1714 1717

[ P-O5'.Res56.NHP ]
1747 1750

[ P-O5'.Res57.NHP ]
1779 1782

[ P-O5'.Res58.NHP ]
1811 1814

[ P-O5'.Res59.NHP ]
1844 1847

[ P-O5'.Res60.NHP ]
1877 1880

[ P-O5'.Res61.NHP ]
1909 1912

[ P-O5'.Res62.NHP ]
1942 1945

[ P-O5'.Res63.NHP ]
1974 1977

[ P-O5'.Res64.NHP ]
2006 2009

[ P-O5'.Res65.NHP ]
2039 2042

[ P-O5'.Res66.NHP ]
2071 2074

[ P-O5'.Res67.NHP ]
2103 2106

[ P-O5'.Res68.NHP ]
2136 2139

[ P-O5'.Res69.NHP ]
2169 2172

[ P-O5'.Res70.NHP ]
2202 2205

[ P-O5'.Res71.NHP ]
2232 2235

[ P-O5'.Res72.NHP ]
2265 2268

[ P-O5'.Res73.NHP ]
2295 2298

[ P-O5'.Res74.NHP ]
2327 2330

[ P-O5'.Res75.NHP ]
2359 2362

[ P-O5'.Res76.NHP ]
2389 2392

[ P-O5'.Res77.NHP ]
2422 2425

[ P-O5'.Res78.NHP ]
2454 2457

[ P-O5'.Res79.NHP ]
2486 2489

[ P-O5'.Res80.NHP ]
2518 2521

[ P-O5'.Res81.NHP ]
2551 2554

[ P-O5'.Res82.NHP ]
2584 2587

[ P-O5'.Res83.NHP ]
2616 2619

[ P-O5'.Res84.NHP ]
2648 2651

[ P-O5'.Res85.NHP ]
2681 2684

[ P-O5'.Res86.NHP ]
2714 2717

[ P-O5'.Res87.NHP ]
2746 2749

[ P-O5'.Res88.NHP ]
2779 2782

[ P-O5'.Res89.NHP ]
2812 2815

[ P-O5'.Res90.NHP ]
2842 2845

[ P-O5'.Res91.NHP ]
2875 2878

[ P-O5'.Res92.NHP ]
2907 2910

[ P-O5'.Res93.NHP ]
2939 2942

[ P-O5'.Res94.NHP ]
2972 2975

[ P-O5'.Res95.NHP ]
3004 3007

[ P-O5'.Res96.NHP ]
3036 3039

[ P-O5'.Res97.NHP ]
3066 3069

[ P-O5'.Res98.NHP ]
3098 3101

[ P-O5'.Res99.NHP ]
3130 3133

[ P-O5'.Res100.NHP ]
3160 3163

[ O5'-C5'.Res1.HP ]
3192 3193

[ O5'-C5'.Res2.HP ]
3225 3226

[ O5'-C5'.Res3.HP ]
3258 3259

[ O5'-C5'.Res4.HP ]
3290 3291

[ O5'-C5'.Res5.HP ]
3322 3323

[ O5'-C5'.Res6.HP ]
3355 3356

[ O5'-C5'.Res7.HP ]
3387 3388

[ O5'-C5'.Res8.HP ]
3419 3420

[ O5'-C5'.Res9.HP ]
3449 3450

[ O5'-C5'.Res10.HP ]
3481 3482

[ O5'-C5'.Res11.HP ]
3513 3514

[ O5'-C5'.Res12.HP ]
3543 3544

[ O5'-C5'.Res13.HP ]
3576 3577

[ O5'-C5'.Res14.HP ]
3606 3607

[ O5'-C5'.Res15.HP ]
3636 3637

[ O5'-C5'.Res16.HP ]
3668 3669

[ O5'-C5'.Res17.HP ]
3698 3699

[ O5'-C5'.Res18.HP ]
3728 3729

[ O5'-C5'.Res19.HP ]
3760 3761

[ O5'-C5'.Res20.HP ]
3792 3793

[ O5'-C5'.Res21.HP ]
3822 3823

[ O5'-C5'.Res22.HP ]
3852 3853

[ O5'-C5'.Res23.HP ]
3884 3885

[ O5'-C5'.Res24.HP ]
3916 3917

[ O5'-C5'.Res25.HP ]
3948 3949

[ O5'-C5'.Res26.HP ]
3978 3979

[ O5'-C5'.Res27.HP ]
4011 4012

[ O5'-C5'.Res28.HP ]
4043 4044

[ O5'-C5'.Res29.HP ]
4075 4076

[ O5'-C5'.Res30.HP ]
4108 4109

[ O5'-C5'.Res31.HP ]
4138 4139

[ O5'-C5'.Res32.HP ]
4171 4172

[ O5'-C5'.Res33.HP ]
4201 4202

[ O5'-C5'.Res34.HP ]
4231 4232

[ O5'-C5'.Res35.HP ]
4261 4262

[ O5'-C5'.Res36.HP ]
4293 4294

[ O5'-C5'.Res37.HP ]
4325 4326

[ O5'-C5'.Res38.HP ]
4355 4356

[ O5'-C5'.Res39.HP ]
4387 4388

[ O5'-C5'.Res40.HP ]
4419 4420

[ O5'-C5'.Res41.HP ]
4449 4450

[ O5'-C5'.Res42.HP ]
4481 4482

[ O5'-C5'.Res43.HP ]
4511 4512

[ O5'-C5'.Res44.HP ]
4541 4542

[ O5'-C5'.Res45.HP ]
4573 4574

[ O5'-C5'.Res46.HP ]
4605 4606

[ O5'-C5'.Res47.HP ]
4635 4636

[ O5'-C5'.Res48.HP ]
4668 4669

[ O5'-C5'.Res49.HP ]
4700 4701

[ O5'-C5'.Res50.HP ]
4733 4734

[ O5'-C5'.Res51.HP ]
4765 4766

[ O5'-C5'.Res52.HP ]
4795 4796

[ O5'-C5'.Res53.HP ]
4828 4829

[ O5'-C5'.Res54.HP ]
4858 4859

[ O5'-C5'.Res55.HP ]
4891 4892

[ O5'-C5'.Res56.HP ]
4921 4922

[ O5'-C5'.Res57.HP ]
4953 4954

[ O5'-C5'.Res58.HP ]
4985 4986

[ O5'-C5'.Res59.HP ]
5017 5018

[ O5'-C5'.Res60.HP ]
5049 5050

[ O5'-C5'.Res61.HP ]
5082 5083

[ O5'-C5'.Res62.HP ]
5112 5113

[ O5'-C5'.Res63.HP ]
5145 5146

[ O5'-C5'.Res64.HP ]
5175 5176

[ O5'-C5'.Res65.HP ]
5208 5209

[ O5'-C5'.Res66.HP ]
5240 5241

[ O5'-C5'.Res67.HP ]
5273 5274

[ O5'-C5'.Res68.HP ]
5305 5306

[ O5'-C5'.Res69.HP ]
5337 5338

[ O5'-C5'.Res70.HP ]
5370 5371

[ O5'-C5'.Res71.HP ]
5402 5403

[ O5'-C5'.Res72.HP ]
5435 5436

[ O5'-C5'.Res73.HP ]
5465 5466

[ O5'-C5'.Res74.HP ]
5497 5498

[ O5'-C5'.Res75.HP ]
5529 5530

[ O5'-C5'.Res76.HP ]
5561 5562

[ O5'-C5'.Res77.HP ]
5593 5594

[ O5'-C5'.Res78.HP ]
5623 5624

[ O5'-C5'.Res79.HP ]
5656 5657

[ O5'-C5'.Res80.HP ]
5689 5690

[ O5'-C5'.Res81.HP ]
5721 5722

[ O5'-C5'.Res82.HP ]
5751 5752

[ O5'-C5'.Res83.HP ]
5783 5784

[ O5'-C5'.Res84.HP ]
5815 5816

[ O5'-C5'.Res85.HP ]
5847 5848

[ O5'-C5'.Res86.HP ]
5877 5878

[ O5'-C5'.Res87.HP ]
5907 5908

[ O5'-C5'.Res88.HP ]
5940 5941

[ O5'-C5'.Res89.HP ]
5970 5971

[ O5'-C5'.Res90.HP ]
6000 6001

[ O5'-C5'.Res91.HP ]
6033 6034

[ O5'-C5'.Res92.HP ]
6065 6066

[ O5'-C5'.Res93.HP ]
6097 6098

[ O5'-C5'.Res94.HP ]
6127 6128

[ O5'-C5'.Res95.HP ]
6160 6161

[ O5'-C5'.Res96.HP ]
6190 6191

[ O5'-C5'.Res97.HP ]
6220 6221

[ O5'-C5'.Res98.HP ]
6253 6254

[ O5'-C5'.Res99.HP ]
6285 6286

[ O5'-C5'.Res100.HP ]
6318 6319

[ O5'-C5'.Res101.HP ]
6350 6351

[ O5'-C5'.Res102.HP ]
6380 6381

[ O5'-C5'.Res103.HP ]
6410 6411

[ O5'-C5'.Res104.HP ]
6442 6443

[ O5'-C5'.Res105.HP ]
6474 6475

[ O5'-C5'.Res106.HP ]
6506 6507

[ O5'-C5'.Res107.HP ]
6536 6537

[ O5'-C5'.Res108.HP ]
6569 6570

[ O5'-C5'.Res109.HP ]
6602 6603

[ O5'-C5'.Res110.HP ]
6634 6635

[ O5'-C5'.Res111.HP ]
6664 6665

[ O5'-C5'.Res112.HP ]
6696 6697

[ O5'-C5'.Res113.HP ]
6728 6729

[ O5'-C5'.Res114.HP ]
6760 6761

[ C5'-C4'.Res1.HP ]
3193 3196

[ C5'-C4'.Res2.HP ]
3226 3229

[ C5'-C4'.Res3.HP ]
3259 3262

[ C5'-C4'.Res4.HP ]
3291 3294

[ C5'-C4'.Res5.HP ]
3323 3326

[ C5'-C4'.Res6.HP ]
3356 3359

[ C5'-C4'.Res7.HP ]
3388 3391

[ C5'-C4'.Res8.HP ]
3420 3423

[ C5'-C4'.Res9.HP ]
3450 3453

[ C5'-C4'.Res10.HP ]
3482 3485

[ C5'-C4'.Res11.HP ]
3514 3517

[ C5'-C4'.Res12.HP ]
3544 3547

[ C5'-C4'.Res13.HP ]
3577 3580

[ C5'-C4'.Res14.HP ]
3607 3610

[ C5'-C4'.Res15.HP ]
3637 3640

[ C5'-C4'.Res16.HP ]
3669 3672

[ C5'-C4'.Res17.HP ]
3699 3702

[ C5'-C4'.Res18.HP ]
3729 3732

[ C5'-C4'.Res19.HP ]
3761 3764

[ C5'-C4'.Res20.HP ]
3793 3796

[ C5'-C4'.Res21.HP ]
3823 3826

[ C5'-C4'.Res22.HP ]
3853 3856

[ C5'-C4'.Res23.HP ]
3885 3888

[ C5'-C4'.Res24.HP ]
3917 3920

[ C5'-C4'.Res25.HP ]
3949 3952

[ C5'-C4'.Res26.HP ]
3979 3982

[ C5'-C4'.Res27.HP ]
4012 4015

[ C5'-C4'.Res28.HP ]
4044 4047

[ C5'-C4'.Res29.HP ]
4076 4079

[ C5'-C4'.Res30.HP ]
4109 4112

[ C5'-C4'.Res31.HP ]
4139 4142

[ C5'-C4'.Res32.HP ]
4172 4175

[ C5'-C4'.Res33.HP ]
4202 4205

[ C5'-C4'.Res34.HP ]
4232 4235

[ C5'-C4'.Res35.HP ]
4262 4265

[ C5'-C4'.Res36.HP ]
4294 4297

[ C5'-C4'.Res37.HP ]
4326 4329

[ C5'-C4'.Res38.HP ]
4356 4359

[ C5'-C4'.Res39.HP ]
4388 4391

[ C5'-C4'.Res40.HP ]
4420 4423

[ C5'-C4'.Res41.HP ]
4450 4453

[ C5'-C4'.Res42.HP ]
4482 4485

[ C5'-C4'.Res43.HP ]
4512 4515

[ C5'-C4'.Res44.HP ]
4542 4545

[ C5'-C4'.Res45.HP ]
4574 4577

[ C5'-C4'.Res46.HP ]
4606 4609

[ C5'-C4'.Res47.HP ]
4636 4639

[ C5'-C4'.Res48.HP ]
4669 4672

[ C5'-C4'.Res49.HP ]
4701 4704

[ C5'-C4'.Res50.HP ]
4734 4737

[ C5'-C4'.Res51.HP ]
4766 4769

[ C5'-C4'.Res52.HP ]
4796 4799

[ C5'-C4'.Res53.HP ]
4829 4832

[ C5'-C4'.Res54.HP ]
4859 4862

[ C5'-C4'.Res55.HP ]
4892 4895

[ C5'-C4'.Res56.HP ]
4922 4925

[ C5'-C4'.Res57.HP ]
4954 4957

[ C5'-C4'.Res58.HP ]
4986 4989

[ C5'-C4'.Res59.HP ]
5018 5021

[ C5'-C4'.Res60.HP ]
5050 5053

[ C5'-C4'.Res61.HP ]
5083 5086

[ C5'-C4'.Res62.HP ]
5113 5116

[ C5'-C4'.Res63.HP ]
5146 5149

[ C5'-C4'.Res64.HP ]
5176 5179

[ C5'-C4'.Res65.HP ]
5209 5212

[ C5'-C4'.Res66.HP ]
5241 5244

[ C5'-C4'.Res67.HP ]
5274 5277

[ C5'-C4'.Res68.HP ]
5306 5309

[ C5'-C4'.Res69.HP ]
5338 5341

[ C5'-C4'.Res70.HP ]
5371 5374

[ C5'-C4'.Res71.HP ]
5403 5406

[ C5'-C4'.Res72.HP ]
5436 5439

[ C5'-C4'.Res73.HP ]
5466 5469

[ C5'-C4'.Res74.HP ]
5498 5501

[ C5'-C4'.Res75.HP ]
5530 5533

[ C5'-C4'.Res76.HP ]
5562 5565

[ C5'-C4'.Res77.HP ]
5594 5597

[ C5'-C4'.Res78.HP ]
5624 5627

[ C5'-C4'.Res79.HP ]
5657 5660

[ C5'-C4'.Res80.HP ]
5690 5693

[ C5'-C4'.Res81.HP ]
5722 5725

[ C5'-C4'.Res82.HP ]
5752 5755

[ C5'-C4'.Res83.HP ]
5784 5787

[ C5'-C4'.Res84.HP ]
5816 5819

[ C5'-C4'.Res85.HP ]
5848 5851

[ C5'-C4'.Res86.HP ]
5878 5881

[ C5'-C4'.Res87.HP ]
5908 5911

[ C5'-C4'.Res88.HP ]
5941 5944

[ C5'-C4'.Res89.HP ]
5971 5974

[ C5'-C4'.Res90.HP ]
6001 6004

[ C5'-C4'.Res91.HP ]
6034 6037

[ C5'-C4'.Res92.HP ]
6066 6069

[ C5'-C4'.Res93.HP ]
6098 6101

[ C5'-C4'.Res94.HP ]
6128 6131

[ C5'-C4'.Res95.HP ]
6161 6164

[ C5'-C4'.Res96.HP ]
6191 6194

[ C5'-C4'.Res97.HP ]
6221 6224

[ C5'-C4'.Res98.HP ]
6254 6257

[ C5'-C4'.Res99.HP ]
6286 6289

[ C5'-C4'.Res100.HP ]
6319 6322

[ C5'-C4'.Res101.HP ]
6351 6354

[ C5'-C4'.Res102.HP ]
6381 6384

[ C5'-C4'.Res103.HP ]
6411 6414

[ C5'-C4'.Res104.HP ]
6443 6446

[ C5'-C4'.Res105.HP ]
6475 6478

[ C5'-C4'.Res106.HP ]
6507 6510

[ C5'-C4'.Res107.HP ]
6537 6540

[ C5'-C4'.Res108.HP ]
6570 6573

[ C5'-C4'.Res109.HP ]
6603 6606

[ C5'-C4'.Res110.HP ]
6635 6638

[ C5'-C4'.Res111.HP ]
6665 6668

[ C5'-C4'.Res112.HP ]
6697 6700

[ C5'-C4'.Res113.HP ]
6729 6732

[ C5'-C4'.Res114.HP ]
6761 6764

[ C4'-C3'.Res1.HP ]
3196 3216

[ C4'-C3'.Res2.HP ]
3229 3249

[ C4'-C3'.Res3.HP ]
3262 3281

[ C4'-C3'.Res4.HP ]
3294 3313

[ C4'-C3'.Res5.HP ]
3326 3346

[ C4'-C3'.Res6.HP ]
3359 3378

[ C4'-C3'.Res7.HP ]
3391 3410

[ C4'-C3'.Res8.HP ]
3423 3440

[ C4'-C3'.Res9.HP ]
3453 3472

[ C4'-C3'.Res10.HP ]
3485 3504

[ C4'-C3'.Res11.HP ]
3517 3534

[ C4'-C3'.Res12.HP ]
3547 3567

[ C4'-C3'.Res13.HP ]
3580 3597

[ C4'-C3'.Res14.HP ]
3610 3627

[ C4'-C3'.Res15.HP ]
3640 3659

[ C4'-C3'.Res16.HP ]
3672 3689

[ C4'-C3'.Res17.HP ]
3702 3719

[ C4'-C3'.Res18.HP ]
3732 3751

[ C4'-C3'.Res19.HP ]
3764 3783

[ C4'-C3'.Res20.HP ]
3796 3813

[ C4'-C3'.Res21.HP ]
3826 3843

[ C4'-C3'.Res22.HP ]
3856 3875

[ C4'-C3'.Res23.HP ]
3888 3907

[ C4'-C3'.Res24.HP ]
3920 3939

[ C4'-C3'.Res25.HP ]
3952 3969

[ C4'-C3'.Res26.HP ]
3982 4002

[ C4'-C3'.Res27.HP ]
4015 4034

[ C4'-C3'.Res28.HP ]
4047 4066

[ C4'-C3'.Res29.HP ]
4079 4099

[ C4'-C3'.Res30.HP ]
4112 4129

[ C4'-C3'.Res31.HP ]
4142 4162

[ C4'-C3'.Res32.HP ]
4175 4192

[ C4'-C3'.Res33.HP ]
4205 4222

[ C4'-C3'.Res34.HP ]
4235 4252

[ C4'-C3'.Res35.HP ]
4265 4284

[ C4'-C3'.Res36.HP ]
4297 4316

[ C4'-C3'.Res37.HP ]
4329 4346

[ C4'-C3'.Res38.HP ]
4359 4378

[ C4'-C3'.Res39.HP ]
4391 4410

[ C4'-C3'.Res40.HP ]
4423 4440

[ C4'-C3'.Res41.HP ]
4453 4472

[ C4'-C3'.Res42.HP ]
4485 4502

[ C4'-C3'.Res43.HP ]
4515 4532

[ C4'-C3'.Res44.HP ]
4545 4564

[ C4'-C3'.Res45.HP ]
4577 4596

[ C4'-C3'.Res46.HP ]
4609 4626

[ C4'-C3'.Res47.HP ]
4639 4659

[ C4'-C3'.Res48.HP ]
4672 4691

[ C4'-C3'.Res49.HP ]
4704 4724

[ C4'-C3'.Res50.HP ]
4737 4756

[ C4'-C3'.Res51.HP ]
4769 4786

[ C4'-C3'.Res52.HP ]
4799 4819

[ C4'-C3'.Res53.HP ]
4832 4849

[ C4'-C3'.Res54.HP ]
4862 4882

[ C4'-C3'.Res55.HP ]
4895 4912

[ C4'-C3'.Res56.HP ]
4925 4944

[ C4'-C3'.Res57.HP ]
4957 4976

[ C4'-C3'.Res58.HP ]
4989 5008

[ C4'-C3'.Res59.HP ]
5021 5040

[ C4'-C3'.Res60.HP ]
5053 5073

[ C4'-C3'.Res61.HP ]
5086 5103

[ C4'-C3'.Res62.HP ]
5116 5136

[ C4'-C3'.Res63.HP ]
5149 5166

[ C4'-C3'.Res64.HP ]
5179 5199

[ C4'-C3'.Res65.HP ]
5212 5231

[ C4'-C3'.Res66.HP ]
5244 5264

[ C4'-C3'.Res67.HP ]
5277 5296

[ C4'-C3'.Res68.HP ]
5309 5328

[ C4'-C3'.Res69.HP ]
5341 5361

[ C4'-C3'.Res70.HP ]
5374 5393

[ C4'-C3'.Res71.HP ]
5406 5426

[ C4'-C3'.Res72.HP ]
5439 5456

[ C4'-C3'.Res73.HP ]
5469 5488

[ C4'-C3'.Res74.HP ]
5501 5520

[ C4'-C3'.Res75.HP ]
5533 5552

[ C4'-C3'.Res76.HP ]
5565 5584

[ C4'-C3'.Res77.HP ]
5597 5614

[ C4'-C3'.Res78.HP ]
5627 5647

[ C4'-C3'.Res79.HP ]
5660 5680

[ C4'-C3'.Res80.HP ]
5693 5712

[ C4'-C3'.Res81.HP ]
5725 5742

[ C4'-C3'.Res82.HP ]
5755 5774

[ C4'-C3'.Res83.HP ]
5787 5806

[ C4'-C3'.Res84.HP ]
5819 5838

[ C4'-C3'.Res85.HP ]
5851 5868

[ C4'-C3'.Res86.HP ]
5881 5898

[ C4'-C3'.Res87.HP ]
5911 5931

[ C4'-C3'.Res88.HP ]
5944 5961

[ C4'-C3'.Res89.HP ]
5974 5991

[ C4'-C3'.Res90.HP ]
6004 6024

[ C4'-C3'.Res91.HP ]
6037 6056

[ C4'-C3'.Res92.HP ]
6069 6088

[ C4'-C3'.Res93.HP ]
6101 6118

[ C4'-C3'.Res94.HP ]
6131 6151

[ C4'-C3'.Res95.HP ]
6164 6181

[ C4'-C3'.Res96.HP ]
6194 6211

[ C4'-C3'.Res97.HP ]
6224 6244

[ C4'-C3'.Res98.HP ]
6257 6276

[ C4'-C3'.Res99.HP ]
6289 6309

[ C4'-C3'.Res100.HP ]
6322 6341

[ C4'-C3'.Res101.HP ]
6354 6371

[ C4'-C3'.Res102.HP ]
6384 6401

[ C4'-C3'.Res103.HP ]
6414 6433

[ C4'-C3'.Res104.HP ]
6446 6465

[ C4'-C3'.Res105.HP ]
6478 6497

[ C4'-C3'.Res106.HP ]
6510 6527

[ C4'-C3'.Res107.HP ]
6540 6560

[ C4'-C3'.Res108.HP ]
6573 6593

[ C4'-C3'.Res109.HP ]
6606 6625

[ C4'-C3'.Res110.HP ]
6638 6655

[ C4'-C3'.Res111.HP ]
6668 6687

[ C4'-C3'.Res112.HP ]
6700 6719

[ C4'-C3'.Res113.HP ]
6732 6751

[ C4'-C3'.Res114.HP ]
6764 6781

[ C3'-O3'.Res1.HP ]
3216 3221

[ C3'-O3'.Res2.HP ]
3249 3254

[ C3'-O3'.Res3.HP ]
3281 3286

[ C3'-O3'.Res4.HP ]
3313 3318

[ C3'-O3'.Res5.HP ]
3346 3351

[ C3'-O3'.Res6.HP ]
3378 3383

[ C3'-O3'.Res7.HP ]
3410 3415

[ C3'-O3'.Res8.HP ]
3440 3445

[ C3'-O3'.Res9.HP ]
3472 3477

[ C3'-O3'.Res10.HP ]
3504 3509

[ C3'-O3'.Res11.HP ]
3534 3539

[ C3'-O3'.Res12.HP ]
3567 3572

[ C3'-O3'.Res13.HP ]
3597 3602

[ C3'-O3'.Res14.HP ]
3627 3632

[ C3'-O3'.Res15.HP ]
3659 3664

[ C3'-O3'.Res16.HP ]
3689 3694

[ C3'-O3'.Res17.HP ]
3719 3724

[ C3'-O3'.Res18.HP ]
3751 3756

[ C3'-O3'.Res19.HP ]
3783 3788

[ C3'-O3'.Res20.HP ]
3813 3818

[ C3'-O3'.Res21.HP ]
3843 3848

[ C3'-O3'.Res22.HP ]
3875 3880

[ C3'-O3'.Res23.HP ]
3907 3912

[ C3'-O3'.Res24.HP ]
3939 3944

[ C3'-O3'.Res25.HP ]
3969 3974

[ C3'-O3'.Res26.HP ]
4002 4007

[ C3'-O3'.Res27.HP ]
4034 4039

[ C3'-O3'.Res28.HP ]
4066 4071

[ C3'-O3'.Res29.HP ]
4099 4104

[ C3'-O3'.Res30.HP ]
4129 4134

[ C3'-O3'.Res31.HP ]
4162 4167

[ C3'-O3'.Res32.HP ]
4192 4197

[ C3'-O3'.Res33.HP ]
4222 4227

[ C3'-O3'.Res34.HP ]
4252 4257

[ C3'-O3'.Res35.HP ]
4284 4289

[ C3'-O3'.Res36.HP ]
4316 4321

[ C3'-O3'.Res37.HP ]
4346 4351

[ C3'-O3'.Res38.HP ]
4378 4383

[ C3'-O3'.Res39.HP ]
4410 4415

[ C3'-O3'.Res40.HP ]
4440 4445

[ C3'-O3'.Res41.HP ]
4472 4477

[ C3'-O3'.Res42.HP ]
4502 4507

[ C3'-O3'.Res43.HP ]
4532 4537

[ C3'-O3'.Res44.HP ]
4564 4569

[ C3'-O3'.Res45.HP ]
4596 4601

[ C3'-O3'.Res46.HP ]
4626 4631

[ C3'-O3'.Res47.HP ]
4659 4664

[ C3'-O3'.Res48.HP ]
4691 4696

[ C3'-O3'.Res49.HP ]
4724 4729

[ C3'-O3'.Res50.HP ]
4756 4761

[ C3'-O3'.Res51.HP ]
4786 4791

[ C3'-O3'.Res52.HP ]
4819 4824

[ C3'-O3'.Res53.HP ]
4849 4854

[ C3'-O3'.Res54.HP ]
4882 4887

[ C3'-O3'.Res55.HP ]
4912 4917

[ C3'-O3'.Res56.HP ]
4944 4949

[ C3'-O3'.Res57.HP ]
4976 4981

[ C3'-O3'.Res58.HP ]
5008 5013

[ C3'-O3'.Res59.HP ]
5040 5045

[ C3'-O3'.Res60.HP ]
5073 5078

[ C3'-O3'.Res61.HP ]
5103 5108

[ C3'-O3'.Res62.HP ]
5136 5141

[ C3'-O3'.Res63.HP ]
5166 5171

[ C3'-O3'.Res64.HP ]
5199 5204

[ C3'-O3'.Res65.HP ]
5231 5236

[ C3'-O3'.Res66.HP ]
5264 5269

[ C3'-O3'.Res67.HP ]
5296 5301

[ C3'-O3'.Res68.HP ]
5328 5333

[ C3'-O3'.Res69.HP ]
5361 5366

[ C3'-O3'.Res70.HP ]
5393 5398

[ C3'-O3'.Res71.HP ]
5426 5431

[ C3'-O3'.Res72.HP ]
5456 5461

[ C3'-O3'.Res73.HP ]
5488 5493

[ C3'-O3'.Res74.HP ]
5520 5525

[ C3'-O3'.Res75.HP ]
5552 5557

[ C3'-O3'.Res76.HP ]
5584 5589

[ C3'-O3'.Res77.HP ]
5614 5619

[ C3'-O3'.Res78.HP ]
5647 5652

[ C3'-O3'.Res79.HP ]
5680 5685

[ C3'-O3'.Res80.HP ]
5712 5717

[ C3'-O3'.Res81.HP ]
5742 5747

[ C3'-O3'.Res82.HP ]
5774 5779

[ C3'-O3'.Res83.HP ]
5806 5811

[ C3'-O3'.Res84.HP ]
5838 5843

[ C3'-O3'.Res85.HP ]
5868 5873

[ C3'-O3'.Res86.HP ]
5898 5903

[ C3'-O3'.Res87.HP ]
5931 5936

[ C3'-O3'.Res88.HP ]
5961 5966

[ C3'-O3'.Res89.HP ]
5991 5996

[ C3'-O3'.Res90.HP ]
6024 6029

[ C3'-O3'.Res91.HP ]
6056 6061

[ C3'-O3'.Res92.HP ]
6088 6093

[ C3'-O3'.Res93.HP ]
6118 6123

[ C3'-O3'.Res94.HP ]
6151 6156

[ C3'-O3'.Res95.HP ]
6181 6186

[ C3'-O3'.Res96.HP ]
6211 6216

[ C3'-O3'.Res97.HP ]
6244 6249

[ C3'-O3'.Res98.HP ]
6276 6281

[ C3'-O3'.Res99.HP ]
6309 6314

[ C3'-O3'.Res100.HP ]
6341 6346

[ C3'-O3'.Res101.HP ]
6371 6376

[ C3'-O3'.Res102.HP ]
6401 6406

[ C3'-O3'.Res103.HP ]
6433 6438

[ C3'-O3'.Res104.HP ]
6465 6470

[ C3'-O3'.Res105.HP ]
6497 6502

[ C3'-O3'.Res106.HP ]
6527 6532

[ C3'-O3'.Res107.HP ]
6560 6565

[ C3'-O3'.Res108.HP ]
6593 6598

[ C3'-O3'.Res109.HP ]
6625 6630

[ C3'-O3'.Res110.HP ]
6655 6660

[ C3'-O3'.Res111.HP ]
6687 6692

[ C3'-O3'.Res112.HP ]
6719 6724

[ C3'-O3'.Res113.HP ]
6751 6756

[ C3'-O3'.Res114.HP ]
6781 6786

[ O3'-P.Res1.5.HP ]
3221 3222

[ O3'-P.Res2.5.HP ]
3254 3255

[ O3'-P.Res3.5.HP ]
3286 3287

[ O3'-P.Res4.5.HP ]
3318 3319

[ O3'-P.Res5.5.HP ]
3351 3352

[ O3'-P.Res6.5.HP ]
3383 3384

[ O3'-P.Res7.5.HP ]
3415 3416

[ O3'-P.Res8.5.HP ]
3445 3446

[ O3'-P.Res9.5.HP ]
3477 3478

[ O3'-P.Res10.5.HP ]
3509 3510

[ O3'-P.Res11.5.HP ]
3539 3540

[ O3'-P.Res12.5.HP ]
3572 3573

[ O3'-P.Res13.5.HP ]
3602 3603

[ O3'-P.Res14.5.HP ]
3632 3633

[ O3'-P.Res15.5.HP ]
3664 3665

[ O3'-P.Res16.5.HP ]
3694 3695

[ O3'-P.Res17.5.HP ]
3724 3725

[ O3'-P.Res18.5.HP ]
3756 3757

[ O3'-P.Res19.5.HP ]
3788 3789

[ O3'-P.Res20.5.HP ]
3818 3819

[ O3'-P.Res21.5.HP ]
3848 3849

[ O3'-P.Res22.5.HP ]
3880 3881

[ O3'-P.Res23.5.HP ]
3912 3913

[ O3'-P.Res24.5.HP ]
3944 3945

[ O3'-P.Res25.5.HP ]
3974 3975

[ O3'-P.Res26.5.HP ]
4007 4008

[ O3'-P.Res27.5.HP ]
4039 4040

[ O3'-P.Res28.5.HP ]
4071 4072

[ O3'-P.Res29.5.HP ]
4104 4105

[ O3'-P.Res30.5.HP ]
4134 4135

[ O3'-P.Res31.5.HP ]
4167 4168

[ O3'-P.Res32.5.HP ]
4197 4198

[ O3'-P.Res33.5.HP ]
4227 4228

[ O3'-P.Res34.5.HP ]
4257 4258

[ O3'-P.Res35.5.HP ]
4289 4290

[ O3'-P.Res36.5.HP ]
4321 4322

[ O3'-P.Res37.5.HP ]
4351 4352

[ O3'-P.Res38.5.HP ]
4383 4384

[ O3'-P.Res39.5.HP ]
4415 4416

[ O3'-P.Res40.5.HP ]
4445 4446

[ O3'-P.Res41.5.HP ]
4477 4478

[ O3'-P.Res42.5.HP ]
4507 4508

[ O3'-P.Res43.5.HP ]
4537 4538

[ O3'-P.Res44.5.HP ]
4569 4570

[ O3'-P.Res45.5.HP ]
4601 4602

[ O3'-P.Res46.5.HP ]
4631 4632

[ O3'-P.Res47.5.HP ]
4664 4665

[ O3'-P.Res48.5.HP ]
4696 4697

[ O3'-P.Res49.5.HP ]
4729 4730

[ O3'-P.Res50.5.HP ]
4761 4762

[ O3'-P.Res51.5.HP ]
4791 4792

[ O3'-P.Res52.5.HP ]
4824 4825

[ O3'-P.Res53.5.HP ]
4854 4855

[ O3'-P.Res54.5.HP ]
4887 4888

[ O3'-P.Res55.5.HP ]
4917 4918

[ O3'-P.Res56.5.HP ]
4949 4950

[ O3'-P.Res57.5.HP ]
4981 4982

[ O3'-P.Res58.5.HP ]
5013 5014

[ O3'-P.Res59.5.HP ]
5045 5046

[ O3'-P.Res60.5.HP ]
5078 5079

[ O3'-P.Res61.5.HP ]
5108 5109

[ O3'-P.Res62.5.HP ]
5141 5142

[ O3'-P.Res63.5.HP ]
5171 5172

[ O3'-P.Res64.5.HP ]
5204 5205

[ O3'-P.Res65.5.HP ]
5236 5237

[ O3'-P.Res66.5.HP ]
5269 5270

[ O3'-P.Res67.5.HP ]
5301 5302

[ O3'-P.Res68.5.HP ]
5333 5334

[ O3'-P.Res69.5.HP ]
5366 5367

[ O3'-P.Res70.5.HP ]
5398 5399

[ O3'-P.Res71.5.HP ]
5431 5432

[ O3'-P.Res72.5.HP ]
5461 5462

[ O3'-P.Res73.5.HP ]
5493 5494

[ O3'-P.Res74.5.HP ]
5525 5526

[ O3'-P.Res75.5.HP ]
5557 5558

[ O3'-P.Res76.5.HP ]
5589 5590

[ O3'-P.Res77.5.HP ]
5619 5620

[ O3'-P.Res78.5.HP ]
5652 5653

[ O3'-P.Res79.5.HP ]
5685 5686

[ O3'-P.Res80.5.HP ]
5717 5718

[ O3'-P.Res81.5.HP ]
5747 5748

[ O3'-P.Res82.5.HP ]
5779 5780

[ O3'-P.Res83.5.HP ]
5811 5812

[ O3'-P.Res84.5.HP ]
5843 5844

[ O3'-P.Res85.5.HP ]
5873 5874

[ O3'-P.Res86.5.HP ]
5903 5904

[ O3'-P.Res87.5.HP ]
5936 5937

[ O3'-P.Res88.5.HP ]
5966 5967

[ O3'-P.Res89.5.HP ]
5996 5997

[ O3'-P.Res90.5.HP ]
6029 6030

[ O3'-P.Res91.5.HP ]
6061 6062

[ O3'-P.Res92.5.HP ]
6093 6094

[ O3'-P.Res93.5.HP ]
6123 6124

[ O3'-P.Res94.5.HP ]
6156 6157

[ O3'-P.Res95.5.HP ]
6186 6187

[ O3'-P.Res96.5.HP ]
6216 6217

[ O3'-P.Res97.5.HP ]
6249 6250

[ O3'-P.Res98.5.HP ]
6281 6282

[ O3'-P.Res99.5.HP ]
6314 6315

[ O3'-P.Res100.5.HP ]
6346 6347

[ O3'-P.Res101.5.HP ]
6376 6377

[ O3'-P.Res102.5.HP ]
6406 6407

[ O3'-P.Res103.5.HP ]
6438 6439

[ O3'-P.Res104.5.HP ]
6470 6471

[ O3'-P.Res105.5.HP ]
6502 6503

[ O3'-P.Res106.5.HP ]
6532 6533

[ O3'-P.Res107.5.HP ]
6565 6566

[ O3'-P.Res108.5.HP ]
6598 6599

[ O3'-P.Res109.5.HP ]
6630 6631

[ O3'-P.Res110.5.HP ]
6660 6661

[ O3'-P.Res111.5.HP ]
6692 6693

[ O3'-P.Res112.5.HP ]
6724 6725

[ O3'-P.Res113.5.HP ]
6756 6757

[ P-O5'.Res2.HP ]
3222 3225

[ P-O5'.Res3.HP ]
3255 3258

[ P-O5'.Res4.HP ]
3287 3290

[ P-O5'.Res5.HP ]
3319 3322

[ P-O5'.Res6.HP ]
3352 3355

[ P-O5'.Res7.HP ]
3384 3387

[ P-O5'.Res8.HP ]
3416 3419

[ P-O5'.Res9.HP ]
3446 3449

[ P-O5'.Res10.HP ]
3478 3481

[ P-O5'.Res11.HP ]
3510 3513

[ P-O5'.Res12.HP ]
3540 3543

[ P-O5'.Res13.HP ]
3573 3576

[ P-O5'.Res14.HP ]
3603 3606

[ P-O5'.Res15.HP ]
3633 3636

[ P-O5'.Res16.HP ]
3665 3668

[ P-O5'.Res17.HP ]
3695 3698

[ P-O5'.Res18.HP ]
3725 3728

[ P-O5'.Res19.HP ]
3757 3760

[ P-O5'.Res20.HP ]
3789 3792

[ P-O5'.Res21.HP ]
3819 3822

[ P-O5'.Res22.HP ]
3849 3852

[ P-O5'.Res23.HP ]
3881 3884

[ P-O5'.Res24.HP ]
3913 3916

[ P-O5'.Res25.HP ]
3945 3948

[ P-O5'.Res26.HP ]
3975 3978

[ P-O5'.Res27.HP ]
4008 4011

[ P-O5'.Res28.HP ]
4040 4043

[ P-O5'.Res29.HP ]
4072 4075

[ P-O5'.Res30.HP ]
4105 4108

[ P-O5'.Res31.HP ]
4135 4138

[ P-O5'.Res32.HP ]
4168 4171

[ P-O5'.Res33.HP ]
4198 4201

[ P-O5'.Res34.HP ]
4228 4231

[ P-O5'.Res35.HP ]
4258 4261

[ P-O5'.Res36.HP ]
4290 4293

[ P-O5'.Res37.HP ]
4322 4325

[ P-O5'.Res38.HP ]
4352 4355

[ P-O5'.Res39.HP ]
4384 4387

[ P-O5'.Res40.HP ]
4416 4419

[ P-O5'.Res41.HP ]
4446 4449

[ P-O5'.Res42.HP ]
4478 4481

[ P-O5'.Res43.HP ]
4508 4511

[ P-O5'.Res44.HP ]
4538 4541

[ P-O5'.Res45.HP ]
4570 4573

[ P-O5'.Res46.HP ]
4602 4605

[ P-O5'.Res47.HP ]
4632 4635

[ P-O5'.Res48.HP ]
4665 4668

[ P-O5'.Res49.HP ]
4697 4700

[ P-O5'.Res50.HP ]
4730 4733

[ P-O5'.Res51.HP ]
4762 4765

[ P-O5'.Res52.HP ]
4792 4795

[ P-O5'.Res53.HP ]
4825 4828

[ P-O5'.Res54.HP ]
4855 4858

[ P-O5'.Res55.HP ]
4888 4891

[ P-O5'.Res56.HP ]
4918 4921

[ P-O5'.Res57.HP ]
4950 4953

[ P-O5'.Res58.HP ]
4982 4985

[ P-O5'.Res59.HP ]
5014 5017

[ P-O5'.Res60.HP ]
5046 5049

[ P-O5'.Res61.HP ]
5079 5082

[ P-O5'.Res62.HP ]
5109 5112

[ P-O5'.Res63.HP ]
5142 5145

[ P-O5'.Res64.HP ]
5172 5175

[ P-O5'.Res65.HP ]
5205 5208

[ P-O5'.Res66.HP ]
5237 5240

[ P-O5'.Res67.HP ]
5270 5273

[ P-O5'.Res68.HP ]
5302 5305

[ P-O5'.Res69.HP ]
5334 5337

[ P-O5'.Res70.HP ]
5367 5370

[ P-O5'.Res71.HP ]
5399 5402

[ P-O5'.Res72.HP ]
5432 5435

[ P-O5'.Res73.HP ]
5462 5465

[ P-O5'.Res74.HP ]
5494 5497

[ P-O5'.Res75.HP ]
5526 5529

[ P-O5'.Res76.HP ]
5558 5561

[ P-O5'.Res77.HP ]
5590 5593

[ P-O5'.Res78.HP ]
5620 5623

[ P-O5'.Res79.HP ]
5653 5656

[ P-O5'.Res80.HP ]
5686 5689

[ P-O5'.Res81.HP ]
5718 5721

[ P-O5'.Res82.HP ]
5748 5751

[ P-O5'.Res83.HP ]
5780 5783

[ P-O5'.Res84.HP ]
5812 5815

[ P-O5'.Res85.HP ]
5844 5847

[ P-O5'.Res86.HP ]
5874 5877

[ P-O5'.Res87.HP ]
5904 5907

[ P-O5'.Res88.HP ]
5937 5940

[ P-O5'.Res89.HP ]
5967 5970

[ P-O5'.Res90.HP ]
5997 6000

[ P-O5'.Res91.HP ]
6030 6033

[ P-O5'.Res92.HP ]
6062 6065

[ P-O5'.Res93.HP ]
6094 6097

[ P-O5'.Res94.HP ]
6124 6127

[ P-O5'.Res95.HP ]
6157 6160

[ P-O5'.Res96.HP ]
6187 6190

[ P-O5'.Res97.HP ]
6217 6220

[ P-O5'.Res98.HP ]
6250 6253

[ P-O5'.Res99.HP ]
6282 6285

[ P-O5'.Res100.HP ]
6315 6318

[ P-O5'.Res101.HP ]
6347 6350

[ P-O5'.Res102.HP ]
6377 6380

[ P-O5'.Res103.HP ]
6407 6410

[ P-O5'.Res104.HP ]
6439 6442

[ P-O5'.Res105.HP ]
6471 6474

[ P-O5'.Res106.HP ]
6503 6506

[ P-O5'.Res107.HP ]
6533 6536

[ P-O5'.Res108.HP ]
6566 6569

[ P-O5'.Res109.HP ]
6599 6602

[ P-O5'.Res110.HP ]
6631 6634

[ P-O5'.Res111.HP ]
6661 6664

[ P-O5'.Res112.HP ]
6693 6696

[ P-O5'.Res113.HP ]
6725 6728

[ P-O5'.Res114.HP ]
6757 6760

